Alloy formula,Al,Cr,Hf,Mo,Nb,Si,Ta,Ti,V,W,Zr,Temperature (C),time (h),specific mass gain (mg/cm2),source
HfNbTaTiZr,0.0,0.0,20.0,0.0,20.0,0.0,20.0,20.0,0.0,0.0,20.0,900,100,51.74,https://doi.org/10.1002/adem.201700948
HfNbTaTiZr,0.0,0.0,20.0,0.0,20.0,0.0,20.0,20.0,0.0,0.0,20.0,1100,100,75.84,https://doi.org/10.1002/adem.201700948
Al0.3HfNbTaTiZr,5.66,0.0,18.87,0.0,18.87,0.0,18.87,18.87,0.0,0.0,18.87,700,100,13.52,https://doi.org/10.1002/adem.201700948
Al0.3HfNbTaTiZr,5.66,0.0,18.87,0.0,18.87,0.0,18.87,18.87,0.0,0.0,18.87,900,100,28.12,https://doi.org/10.1002/adem.201700948
Al0.3HfNbTaTiZr,5.66,0.0,18.87,0.0,18.87,0.0,18.87,18.87,0.0,0.0,18.87,1100,100,68.4,https://doi.org/10.1002/adem.201700948
Al0.5HfNbTaTiZr,9.09,0.0,18.18,0.0,18.18,0.0,18.18,18.18,0.0,0.0,18.18,700,100,12.96,https://doi.org/10.1002/adem.201700948
Al0.5HfNbTaTiZr,9.09,0.0,18.18,0.0,18.18,0.0,18.18,18.18,0.0,0.0,18.18,900,100,16.89,https://doi.org/10.1002/adem.201700948
Al0.5HfNbTaTiZr,9.09,0.0,18.18,0.0,18.18,0.0,18.18,18.18,0.0,0.0,18.18,1100,100,60.96,https://doi.org/10.1002/adem.201700948
Al0.75HfNbTaTiZr,13.04,0.0,17.39,0.0,17.39,0.0,17.39,17.39,0.0,0.0,17.39,700,100,9.95,https://doi.org/10.1002/adem.201700948
Al0.75HfNbTaTiZr,13.04,0.0,17.39,0.0,17.39,0.0,17.39,17.39,0.0,0.0,17.39,900,100,15.48,https://doi.org/10.1002/adem.201700948
Al0.75HfNbTaTiZr,13.04,0.0,17.39,0.0,17.39,0.0,17.39,17.39,0.0,0.0,17.39,1100,100,58.99,https://doi.org/10.1002/adem.201700948
AlHfNbTaTiZr,16.67,0.0,16.67,0.0,16.67,0.0,16.67,16.67,0.0,0.0,16.67,700,100,9.15,https://doi.org/10.1002/adem.201700948
AlHfNbTaTiZr,16.67,0.0,16.67,0.0,16.67,0.0,16.67,16.67,0.0,0.0,16.67,900,100,14.97,https://doi.org/10.1002/adem.201700948
AlHfNbTaTiZr,16.67,0.0,16.67,0.0,16.67,0.0,16.67,16.67,0.0,0.0,16.67,1100,100,52.42,https://doi.org/10.1002/adem.201700948
Nb-24Ti-18Si-5Cr-5Al-5Mo,4.8,4.7,0.0,4.9,43.1,18.2,0.0,24.3,0.0,0.0,0.0,800,100,20.81,https://doi.org/10.1016/j.msea.2006.08.093
Nb-24Ti-18Si-5Cr-5Al-2Mo,4.8,5.2,0.0,2.0,45.1,17.5,0.0,25.4,0.0,0.0,0.0,1200,100,154.83,https://doi.org/10.1016/j.msea.2006.08.093
AlNbTiVZr0.25,23.53,0.0,0.0,0.0,23.53,0.0,0.0,23.53,23.53,0.0,5.88,600,100,7.45,https://doi.org/10.3390/ma11122526
AlNbTiVZr0.25,23.53,0.0,0.0,0.0,23.53,0.0,0.0,23.53,23.53,0.0,5.88,700,100,38.28,https://doi.org/10.3390/ma11122526
AlNbTiVZr0.25,23.53,0.0,0.0,0.0,23.53,0.0,0.0,23.53,23.53,0.0,5.88,800,100,107.78,https://doi.org/10.3390/ma11122526
Al-25.5Nb-6Cr-0.5Hf,68.0,6.0,0.5,0.0,25.5,0.0,0.0,0.0,0.0,0.0,0.0,800,100,1.54,https://doi.org/10.3390/ma12162531
Al-25.5Nb-6Cr-0.5Hf,68.0,6.0,0.5,0.0,25.5,0.0,0.0,0.0,0.0,0.0,0.0,1300,100,8.66,https://doi.org/10.3390/ma12162531
Al-Cr-Mo-Nb-Si-Ta-Ti,17.6,25.2,0.0,20.3,15.2,2.9,13.4,5.4,0.0,0.0,0.0,1000,100,2.48,https://doi.org/10.1038/s41598-019-43819-x
Al-Cr-Mo-Nb-Si-Ta-Ti,17.6,25.2,0.0,20.3,15.2,2.9,13.4,5.4,0.0,0.0,0.0,1100,100,3.54,https://doi.org/10.1038/s41598-019-43819-x
Al-Cr-Mo-Nb-Si-Ta-Ti,17.6,25.2,0.0,20.3,15.2,2.9,13.4,5.4,0.0,0.0,0.0,1200,100,6.19,https://doi.org/10.1016/j.intermet.2020.106711
Al-Cr-Mo-Nb-Si-Ta-Ti,17.6,25.2,0.0,20.3,15.2,2.9,13.4,5.4,0.0,0.0,0.0,1300,100,9.86,https://doi.org/10.1016/j.intermet.2020.106711
Al-Cr-Mo-Nb-Si-Ta-Ti,17.6,25.2,0.0,20.3,15.2,2.9,13.4,5.4,0.0,0.0,0.0,1400,100,18.4,https://doi.org/10.1016/j.intermet.2020.106711
Al0.15CrTaTi,4.76,31.74,0.0,0.0,0.0,0.0,31.74,31.74,0.0,0.0,0.0,1000,100,24.3,https://doi.org/10.1016/j.jallcom.2022.167675
Al0.25CrTaTi,7.69,30.77,0.0,0.0,0.0,0.0,30.77,30.77,0.0,0.0,0.0,1000,100,7.3,https://doi.org/10.1016/j.jallcom.2022.167675
Al0.35CrTaTi,10.45,29.85,0.0,0.0,0.0,0.0,29.85,29.85,0.0,0.0,0.0,1000,100,5.4,https://doi.org/10.1016/j.jallcom.2022.167675
NbCrMo0.5Ta0.5TiZr,0.0,18.39,0.0,10.04,21.84,0.0,11.86,19.4,0.0,0.0,18.48,1000,100,119.0,https://doi.org/10.1007/s10853-012-6582-0