Alloy formula,Al,Cr,Hf,Mo,Nb,Si,Ta,Ti,V,W,Zr,Temperature (C),time (h),specific mass gain (mg/cm2),source
AlNb1.5Ta0.5Ti1.5Zr0.5,20.0,0.0,0.0,0.0,30.0,0.0,10.0,30.0,0.0,0.0,10.0,1000,4,10.14,https://doi.org/10.1016/j.jallcom.2019.02.128
AlCrMoTaTi,20.0,20.0,0.0,20.0,0.0,0.0,20.0,20.0,0.0,0.0,0.0,1000,4,1.22,https://doi.org/10.1016/j.corsci.2019.108161
AlCrMoNb,25.0,25.0,0.0,25.0,25.0,0.0,0.0,0.0,0.0,0.0,0.0,1000,4,0.56,https://doi.org/10.1016/j.corsci.2019.108161
AlCrMoNbTi,20.0,20.0,0.0,20.0,20.0,0.0,0.0,20.0,0.0,0.0,0.0,1000,4,0.75,https://doi.org/10.1016/j.corsci.2019.108161
AlCrMoTaTi,20.0,20.0,0.0,20.0,0.0,0.0,20.0,20.0,0.0,0.0,0.0,900,4,0.15,http://dx.doi.org/10.1080/09603409.2017.1389115
AlCrMoTaTi,20.0,20.0,0.0,20.0,0.0,0.0,20.0,20.0,0.0,0.0,0.0,1000,4,0.35,http://dx.doi.org/10.1080/09603409.2017.1389115
AlCrMoTaTi,20.0,20.0,0.0,20.0,0.0,0.0,20.0,20.0,0.0,0.0,0.0,1100,4,1.11,http://dx.doi.org/10.1080/09603409.2017.1389115
AlCrMoTaTi-1Si,19.8,19.8,0.0,19.8,0.0,1.0,19.8,19.8,0.0,0.0,0.0,900,4,0.18,http://dx.doi.org/10.1080/09603409.2017.1389115
AlCrMoTaTi-1Si,19.8,19.8,0.0,19.8,0.0,1.0,19.8,19.8,0.0,0.0,0.0,1000,4,0.43,http://dx.doi.org/10.1080/09603409.2017.1389115
AlCrMoTaTi-1Si,19.8,19.8,0.0,19.8,0.0,1.0,19.8,19.8,0.0,0.0,0.0,1100,4,1.61,http://dx.doi.org/10.1080/09603409.2017.1389115
NbTaTi,0.0,0.0,0.0,0.0,33.33,0.0,33.33,33.34,0.0,0.0,0.0,1200,4,41.86,https://doi.org/10.1016/j.jallcom.2020.158003
NbTaZr,0.0,0.0,0.0,0.0,33.33,0.0,33.33,0.0,0.0,0.0,33.34,1200,4,144.56,https://doi.org/10.1016/j.jallcom.2020.158003
Al20Cr25Nb20Ti20Zr15,20.0,25.0,0.0,0.0,20.0,0.0,0.0,20.0,0.0,0.0,15.0,800,4,7.06,https://doi.org/10.1007/s11665-019-04177-x
AlTiCrMoNb-4,46.3,5.1,0.0,5.5,3.1,0.0,0.0,40.1,0.0,0.0,0.0,900,4,0.89,http://dx.doi.org/10.1016/j.intermet.2013.07.023
AlTiCrMoNb-4,46.3,5.1,0.0,5.5,3.1,0.0,0.0,40.1,0.0,0.0,0.0,1000,4,2.59,http://dx.doi.org/10.1016/j.intermet.2013.07.023
AlTiCrMoNb-5,48.6,7.2,0.0,7.2,4.8,0.0,0.0,32.2,0.0,0.0,0.0,900,4,1.12,http://dx.doi.org/10.1016/j.intermet.2013.07.023
AlTiCrMoNb-3,46.0,3.0,0.0,2.0,0.5,0.0,0.0,48.5,0.0,0.0,0.0,900,4,1.2,http://dx.doi.org/10.1016/j.intermet.2013.07.023
AlTiCrMoNb-3,46.0,3.0,0.0,2.0,0.5,0.0,0.0,48.5,0.0,0.0,0.0,1000,4,1.52,http://dx.doi.org/10.1016/j.intermet.2013.07.023
AlTiCrMoNb-1,35.6,4.0,0.0,2.4,1.0,0.0,0.0,57.0,0.0,0.0,0.0,900,4,2.47,http://dx.doi.org/10.1016/j.intermet.2013.07.023
AlTiCrMoNb-2,37.7,3.5,0.0,1.5,0.5,0.0,0.0,56.8,0.0,0.0,0.0,900,4,3.45,http://dx.doi.org/10.1016/j.intermet.2013.07.023
Al5CrMoTaTi,5.0,23.75,0.0,23.75,0.0,0.0,23.75,23.75,0.0,0.0,0.0,1200,4,4.15,https://doi.org/10.1007/s11085-021-10046-7
Al15CrMoTaTi,15.0,21.25,0.0,21.25,0.0,0.0,21.25,21.25,0.0,0.0,0.0,1200,4,2.21,https://doi.org/10.1007/s11085-021-10046-7
Al20CrMoTaTi,20.0,20.0,0.0,20.0,0.0,0.0,20.0,20.0,0.0,0.0,0.0,1200,4,2.31,https://doi.org/10.1007/s11085-021-10046-7
NbMoWZr,0.0,0.0,0.0,2.0,92.0,0.0,0.0,0.0,0.0,5.0,1.0,800,4,62.56,https://doi.org/10.1016/j.corsci.2021.109513
Nb-18Si-5Cr-5Al-5Mo,4.5,4.8,0.0,5.2,67.8,17.7,0.0,0.0,0.0,0.0,0.0,800,4,2.81,https://doi.org/10.1016/j.msea.2006.08.093
Nb-24Ti-18Si-5Cr-5Al-5Mo,4.8,4.7,0.0,4.9,43.1,18.2,0.0,24.3,0.0,0.0,0.0,800,4,1.58,https://doi.org/10.1016/j.msea.2006.08.093
Nb-24Ti-18Si-5Cr-5Al-2Mo,4.8,5.2,0.0,2.0,45.1,17.5,0.0,25.4,0.0,0.0,0.0,800,4,0.29,https://doi.org/10.1016/j.msea.2006.08.093
Nb-24Ti-18Si-5Cr-5Al-2Mo,4.8,5.2,0.0,2.0,45.1,17.5,0.0,25.4,0.0,0.0,0.0,1200,4,6.11,https://doi.org/10.1016/j.msea.2006.08.093
Nb-24Ti-18Si-5Cr-5Al-2Mo-5Hf,4.6,4.5,5.2,2.0,41.2,18.9,0.0,23.6,0.0,0.0,0.0,800,4,0.49,https://doi.org/10.1016/j.msea.2006.08.093
Nb-24Ti-18Si-5Cr-5Al-2Mo-5Hf,4.6,4.5,5.2,2.0,41.2,18.9,0.0,23.6,0.0,0.0,0.0,1200,4,6.76,https://doi.org/10.1016/j.msea.2006.08.093
AlNbTiVZr0.25,23.53,0.0,0.0,0.0,23.53,0.0,0.0,23.53,23.53,0.0,5.88,600,4,1.42,https://doi.org/10.3390/ma11122526
AlNbTiVZr0.25,23.53,0.0,0.0,0.0,23.53,0.0,0.0,23.53,23.53,0.0,5.88,700,4,3.84,https://doi.org/10.3390/ma11122526
AlNbTiVZr0.25,23.53,0.0,0.0,0.0,23.53,0.0,0.0,23.53,23.53,0.0,5.88,800,4,7.06,https://doi.org/10.3390/ma11122526
AlNbTiVZr0.25,23.53,0.0,0.0,0.0,23.53,0.0,0.0,23.53,23.53,0.0,5.88,900,4,54.8,https://doi.org/10.3390/ma11122526
Al-25.5Nb-6Cr-0.5Hf,68.0,6.0,0.5,0.0,25.5,0.0,0.0,0.0,0.0,0.0,0.0,800,4,0.2,https://doi.org/10.3390/ma12162531
Al-25.5Nb-6Cr-0.5Hf,68.0,6.0,0.5,0.0,25.5,0.0,0.0,0.0,0.0,0.0,0.0,1200,4,0.42,https://doi.org/10.3390/ma12162531
Al-25.5Nb-6Cr-0.5Hf,68.0,6.0,0.5,0.0,25.5,0.0,0.0,0.0,0.0,0.0,0.0,1300,4,2.48,https://doi.org/10.3390/ma12162531
Al-Cr-Mo-Nb-Si-Ta-Ti,17.6,25.2,0.0,20.3,15.2,2.9,13.4,5.4,0.0,0.0,0.0,1000,4,0.22,https://doi.org/10.1038/s41598-019-43819-x
Al-Cr-Mo-Nb-Si-Ta-Ti,17.6,25.2,0.0,20.3,15.2,2.9,13.4,5.4,0.0,0.0,0.0,1100,4,0.31,https://doi.org/10.1038/s41598-019-43819-x
Al-Cr-Mo-Nb-Si-Ta-Ti,17.6,25.2,0.0,20.3,15.2,2.9,13.4,5.4,0.0,0.0,0.0,1200,4,1.0,https://doi.org/10.1016/j.intermet.2020.106711
Al-Cr-Mo-Nb-Si-Ta-Ti,17.6,25.2,0.0,20.3,15.2,2.9,13.4,5.4,0.0,0.0,0.0,1300,4,1.99,https://doi.org/10.1016/j.intermet.2020.106711
Al-Cr-Mo-Nb-Si-Ta-Ti,17.6,25.2,0.0,20.3,15.2,2.9,13.4,5.4,0.0,0.0,0.0,1400,4,4.15,https://doi.org/10.1016/j.intermet.2020.106711
15CrNbW,0.0,13.2,0.0,0.0,75.4,0.0,0.0,0.0,0.0,11.4,0.0,900,4,14.72,https://doi.org/10.1016/j.corsci.2010.05.009
15CrNbW,0.0,13.2,0.0,0.0,75.4,0.0,0.0,0.0,0.0,11.4,0.0,1100,4,35.78,https://doi.org/10.1016/j.corsci.2010.05.009
15CrNbW,0.0,13.2,0.0,0.0,75.4,0.0,0.0,0.0,0.0,11.4,0.0,1300,4,37.54,https://doi.org/10.1016/j.corsci.2010.05.009
20CrNbW,0.0,17.85,0.0,0.0,70.75,0.0,0.0,0.0,0.0,11.4,0.0,900,4,15.4,https://doi.org/10.1016/j.corsci.2010.05.009
20CrNbW,0.0,17.85,0.0,0.0,70.75,0.0,0.0,0.0,0.0,11.4,0.0,1100,4,24.5,https://doi.org/10.1016/j.corsci.2010.05.009
20CrNbW,0.0,17.85,0.0,0.0,70.75,0.0,0.0,0.0,0.0,11.4,0.0,1300,4,34.59,https://doi.org/10.1016/j.corsci.2010.05.009
25CrNbW,0.0,25.4,0.0,0.0,63.55,0.0,0.0,0.0,0.0,11.05,0.0,900,4,21.81,https://doi.org/10.1016/j.corsci.2010.05.009
25CrNbW,0.0,25.4,0.0,0.0,63.55,0.0,0.0,0.0,0.0,11.05,0.0,1100,4,8.21,https://doi.org/10.1016/j.corsci.2010.05.009
25CrNbW,0.0,25.4,0.0,0.0,63.55,0.0,0.0,0.0,0.0,11.05,0.0,1300,4,12.13,https://doi.org/10.1016/j.corsci.2010.05.009
30CrNbW,0.0,29.25,0.0,0.0,61.65,0.0,0.0,0.0,0.0,9.1,0.0,900,4,19.08,https://doi.org/10.1016/j.corsci.2010.05.009
30CrNbW,0.0,29.25,0.0,0.0,61.65,0.0,0.0,0.0,0.0,9.1,0.0,1100,4,6.4,https://doi.org/10.1016/j.corsci.2010.05.009
30CrNbW,0.0,29.25,0.0,0.0,61.65,0.0,0.0,0.0,0.0,9.1,0.0,1300,4,10.0,https://doi.org/10.1016/j.corsci.2010.05.009
AlMo0.5NbTa0.5TiZr,18.92,0.0,0.0,10.29,20.16,0.0,11.32,19.33,0.0,0.0,19.98,800,4,1.51,https://doi.org/10.1016/j.vacuum.2022.111069
TaTiCr,0.0,32.6,0.0,0.0,0.0,0.0,30.6,36.8,0.0,0.0,0.0,1200,4,4.82,https://doi.org/10.1016/j.jallcom.2023.169000
Ta4TiCr3,0.0,37.9,0.0,0.0,0.0,0.0,49.9,12.2,0.0,0.0,0.0,1200,4,7.09,https://doi.org/10.1016/j.jallcom.2023.169000
Ta4Ti3Cr,0.0,11.9,0.0,0.0,0.0,0.0,50.9,37.2,0.0,0.0,0.0,1200,4,25.25,https://doi.org/10.1016/j.jallcom.2023.169000
Ta2TiCr,0.0,31.0,0.0,0.0,0.0,0.0,46.5,22.5,0.0,0.0,0.0,1200,4,53.62,https://doi.org/10.1016/j.jallcom.2023.169000
Mo0.5NbHf0.25CrTiAl,21.05,21.05,5.26,10.53,21.05,0.0,0.0,21.05,0.0,0.0,0.0,1200,4,7.5,https://doi.org/10.1088/2053-1591/ac8e50
Mo0.5NbHf0.25CrZr0.5TiAl,19.05,19.05,4.76,9.52,19.05,0.0,0.0,19.05,0.0,0.0,9.52,1200,4,35.0,https://doi.org/10.1088/2053-1591/ac8e50
Mo0.5NbHf0.25CrZrTiAl,17.39,17.39,4.35,8.69,17.39,0.0,0.0,17.39,0.0,0.0,17.39,1200,4,56.1,https://doi.org/10.1088/2053-1591/ac8e50
WMoTaNb,0.0,0.0,0.0,23.3,22.1,0.0,26.5,0.0,0.0,28.2,0.0,1000,4,38.0,https://doi.org/10.3390/met12010041
WMoTaNbV,0.0,0.0,0.0,19.5,17.8,0.0,22.2,0.0,17.8,22.7,0.0,1000,4,39.0,https://doi.org/10.3390/met12010041
WMoTaNbTi,0.0,0.0,0.0,18.0,17.1,0.0,23.4,15.1,0.0,26.4,0.0,1000,4,53.0,https://doi.org/10.3390/met12010041
Al5(TiZrHfNb)95,5.0,0.0,23.75,0.0,23.75,0.0,0.0,23.75,0.0,0.0,23.75,800,4,90.0,https://doi.org/10.1016/j.matchar.2022.111921
Al7(TiZrHfNb)93,7.0,0.0,23.25,0.0,23.25,0.0,0.0,23.25,0.0,0.0,23.25,800,4,135.0,https://doi.org/10.1016/j.matchar.2022.111921
Al12(TiZrHfNb)88,12.0,0.0,22.0,0.0,22.0,0.0,0.0,22.0,0.0,0.0,22.0,800,4,290.0,https://doi.org/10.1016/j.matchar.2022.111921
AlMo0.5NbTa0.5TiZr,18.92,0.0,0.0,10.29,20.16,0.0,11.32,19.33,0.0,0.0,19.98,900,4,5.1,https://doi.org/10.1016/j.ijrmhm.2022.105812
Al1.25Mo0.5NbTa0.5TiZr,21.95,0.0,0.0,9.92,19.75,0.0,11.02,18.78,0.0,0.0,18.58,900,4,4.4,https://doi.org/10.1016/j.ijrmhm.2022.105812
Al1.5Mo0.5NbTa0.5TiZr,24.58,0.0,0.0,9.62,19.06,0.0,10.74,17.98,0.0,0.0,18.02,900,4,3.7,https://doi.org/10.1016/j.ijrmhm.2022.105812
AlMo0.5NbTa0.5TiZr,18.92,0.0,0.0,10.29,20.16,0.0,11.32,19.33,0.0,0.0,19.98,1000,4,10.8,https://doi.org/10.1016/j.ijrmhm.2022.105812
Al1.25Mo0.5NbTa0.5TiZr,21.95,0.0,0.0,9.92,19.75,0.0,11.02,18.78,0.0,0.0,18.58,1000,4,9.9,https://doi.org/10.1016/j.ijrmhm.2022.105812
Al1.5Mo0.5NbTa0.5TiZr,24.58,0.0,0.0,9.62,19.06,0.0,10.74,17.98,0.0,0.0,18.02,1000,4,9.1,https://doi.org/10.1016/j.ijrmhm.2022.105812
WTaNbTiAl,20.0,0.0,0.0,0.0,20.0,0.0,20.0,20.0,0.0,0.0,0.0,1000,4,3.73,https://doi.org/10.1016/j.corsci.2022.110377
CrMoTaTi,0.0,25.0,0.0,25.0,0.0,0.0,25.0,25.0,0.0,0.0,0.0,1000,4,2.1,https://doi.org/10.1016/j.ijrmhm.2021.105755
MoTaTiCr,0.0,25.0,0.0,25.0,0.0,0.0,25.0,25.0,0.0,0.0,0.0,1000,4,0.8,https://doi.org/10.1016/j.jallcom.2021.162733
WTaTiCr,0.0,25.0,0.0,0.0,0.0,0.0,25.0,25.0,0.0,25.0,0.0,1000,4,3.4,https://doi.org/10.1016/j.jallcom.2021.162733
WMoTaTiCr,0.0,20.0,0.0,20.0,0.0,0.0,20.0,20.0,0.0,20.0,0.0,1000,4,5.4,https://doi.org/10.1016/j.jallcom.2021.162733
WTaAlCr,25.0,25.0,0.0,0.0,0.0,0.0,25.0,0.0,0.0,25.0,0.0,1000,4,6.8,https://doi.org/10.1016/j.jallcom.2021.162733
WMoTaAlCr,20.0,20.0,0.0,20.0,0.0,0.0,20.0,0.0,0.0,20.0,0.0,1000,4,2.7,https://doi.org/10.1016/j.jallcom.2021.162733
AlCrTiMo,25.0,25.0,0.0,25.0,0.0,0.0,0.0,25.0,0.0,0.0,0.0,1000,4,8.0,https://doi.org/10.1007/s10853-020-05480-y
Al0.75CrTiMo,20.0,26.66,0.0,26.66,0.0,0.0,0.0,26.66,0.0,0.0,0.0,1000,4,6.5,https://doi.org/10.1007/s10853-020-05480-y
Al0.5CrTiMo,14.29,28.57,0.0,28.57,0.0,0.0,0.0,28.57,0.0,0.0,0.0,1000,4,6.0,https://doi.org/10.1007/s10853-020-05480-y
Al0.25CrTiMo,7.69,30.77,0.0,30.77,0.0,0.0,0.0,30.77,0.0,0.0,0.0,1000,4,9.2,https://doi.org/10.1007/s10853-020-05480-y
MoTaTi,0.0,0.0,0.0,33.33,0.0,0.0,33.33,33.33,0.0,0.0,0.0,1000,4,19.0,https://doi.org/10.1007/s40843-020-1332-2
MoTaTiAl,25.0,0.0,0.0,25.0,0.0,0.0,25.0,25.0,0.0,0.0,0.0,1000,4,2.24,https://doi.org/10.1007/s40843-020-1332-2
MoTaTiCr,0.0,25.0,0.0,25.0,0.0,0.0,25.0,25.0,0.0,0.0,0.0,1000,4,0.75,https://doi.org/10.1007/s40843-020-1332-2
MoTaTiCrAl,20.0,20.0,0.0,20.0,0.0,0.0,20.0,20.0,0.0,0.0,0.0,1000,4,1.53,https://doi.org/10.1007/s40843-020-1332-2
NbCrMo0.5Ta0.5TiZr,0.0,18.39,0.0,10.04,21.84,0.0,11.86,19.4,0.0,0.0,18.48,1000,4,20.0,https://doi.org/10.1007/s10853-012-6582-0
Al0.5NbTaTi,8.6,0.0,0.0,0.0,30.1,0.0,35.2,26.1,0.0,0.0,0.0,1000,4,9.235,Tom_ini
Al0.5CrMoNbTi,10.3,21.0,0.0,23.9,23.4,0.0,0.0,21.5,0.0,0.0,0.0,1000,4,0.543,Tom_ini
Al0.5CrMoNbTaTi,6.9,15.7,0.0,20.6,18.7,0.0,21.6,16.5,0.0,0.0,0.0,1000,4,0.752,Tom_ini
CrNbTaTiZr,0.0,21.2,0.0,0.0,19.1,0.0,19.3,19.3,0.0,0.0,21.0,1000,4,27.572,Tom_ini
CrNbTaTiZr-BCC,0.0,12.6,0.0,0.0,27.5,0.0,36.2,15.8,0.0,0.0,7.9,1000,4,25.294,Tom_ini
Al0.5CrNbTaTiZr,10.0,19.6,0.0,0.0,16.3,0.0,17.5,17.0,0.0,0.0,19.5,1000,4,9.181,Tom_ini
Al0.5CrNbTaTiZr-BCC,7.49,15.97,0.0,0.0,23.86,0.0,31.01,14.05,0.0,0.0,7.62,1000,4,12.945,Tom_ini
NbTaTi,0.0,0.0,0.0,0.0,33.1,0.0,36.2,30.7,0.0,0.0,0.0,1000,4,11.958,Tom_ini
Cr0.25NbTaTi,0.0,10.9,0.0,0.0,27.1,0.0,28.8,33.2,0.0,0.0,0.0,1000,4,11.534,Tom_ini
Cr-31Nb,0.0,69.0,0.0,0.0,31.0,0.0,0.0,0.0,0.0,0.0,0.0,1100,10,4.41,http://dx.doi.org/10.1179/mht.2000.17.2.009
Cr-18.5Nb,0.0,81.5,0.0,0.0,18.5,0.0,0.0,0.0,0.0,0.0,0.0,1100,10,10.52,http://dx.doi.org/10.1179/mht.2000.17.2.009
Cr-31Ta,0.0,69.0,0.0,0.0,31.0,0.0,0.0,0.0,0.0,0.0,0.0,1100,10,7.39,http://dx.doi.org/10.1179/mht.2000.17.2.009
Cr-9.5Ta,0.0,90.5,0.0,0.0,9.5,0.0,0.0,0.0,0.0,0.0,0.0,1100,10,4.93,http://dx.doi.org/10.1179/mht.2000.17.2.009
AlTi,53.46,0.0,0.0,0.0,0.0,0.0,0.0,46.54,0.0,0.0,0.0,900,10,0.97,https://doi.org/10.1016/0956-716X(95)00327-R
AlTi-10wtCr,47.78,7.17,0.0,0.0,0.0,0.0,0.0,45.05,0.0,0.0,0.0,900,10,2.8,https://doi.org/10.1016/0956-716X(95)00327-R
AlTi-5wtCr,53.83,3.15,0.0,0.0,0.0,0.0,0.0,43.02,0.0,0.0,0.0,900,10,3.79,https://doi.org/10.1016/0956-716X(95)00327-R
AlTi-5wtMo,50.52,0.0,0.0,1.98,0.0,0.0,0.0,47.5,0.0,0.0,0.0,900,10,1.23,https://doi.org/10.1016/0956-716X(95)00327-R
AlTi-5wtNb,51.16,0.0,0.0,0.0,2.51,0.0,0.0,46.33,0.0,0.0,0.0,900,10,0.77,https://doi.org/10.1016/0956-716X(95)00327-R
AlTi-5wtNb,51.16,0.0,0.0,0.0,2.51,0.0,0.0,46.33,0.0,0.0,0.0,1000,10,2.07,https://doi.org/10.1016/0956-716X(95)00327-R
AlTi-5wtNb,51.16,0.0,0.0,0.0,2.51,0.0,0.0,46.33,0.0,0.0,0.0,1100,10,6.34,https://doi.org/10.1016/0956-716X(95)00327-R
AlTi-5wtV,49.6,0.0,0.0,0.0,0.0,0.0,0.0,46.94,3.46,0.0,0.0,900,10,3.79,https://doi.org/10.1016/0956-716X(95)00327-R
AlTi-5wtSi,48.49,0.0,0.0,0.0,0.0,5.62,0.0,45.89,0.0,0.0,0.0,900,10,0.52,https://doi.org/10.1016/0956-716X(95)00327-R
AlTi-5wtSi,48.49,0.0,0.0,0.0,0.0,5.62,0.0,45.89,0.0,0.0,0.0,1000,10,3.13,https://doi.org/10.1016/0956-716X(95)00327-R
AlTi-5wtSi,48.49,0.0,0.0,0.0,0.0,5.62,0.0,45.89,0.0,0.0,0.0,1100,10,6.68,https://doi.org/10.1016/0956-716X(95)00327-R
Al3Ti,75.0,0.0,0.0,0.0,0.0,0.0,0.0,25.0,0.0,0.0,0.0,1000,10,0.05,https://doi.org/10.1007/BF01105677
AlTi,50.0,0.0,0.0,0.0,0.0,0.0,0.0,50.0,0.0,0.0,0.0,800,10,0.24,https://doi.org/10.1007/BF01105677
AlTi,50.0,0.0,0.0,0.0,0.0,0.0,0.0,50.0,0.0,0.0,0.0,900,10,1.01,https://doi.org/10.1007/BF01105677
AlTi,50.0,0.0,0.0,0.0,0.0,0.0,0.0,50.0,0.0,0.0,0.0,1000,10,7.97,https://doi.org/10.1007/BF01105677
Ti-47Al,47.12,0.0,0.0,0.0,0.0,0.0,0.0,52.88,0.0,0.0,0.0,800,10,0.28,https://doi.org/10.1007/BF03027458
Ti-47Al,47.12,0.0,0.0,0.0,0.0,0.0,0.0,52.88,0.0,0.0,0.0,900,10,0.61,https://doi.org/10.1007/BF03027458
Ti-47Al,47.12,0.0,0.0,0.0,0.0,0.0,0.0,52.88,0.0,0.0,0.0,1000,10,5.28,https://doi.org/10.1007/BF03027458
Ti-51Al,50.56,0.0,0.0,0.0,0.0,0.0,0.0,49.44,0.0,0.0,0.0,800,10,0.16,https://doi.org/10.1007/BF03027458
Ti-51Al,50.56,0.0,0.0,0.0,0.0,0.0,0.0,49.44,0.0,0.0,0.0,900,10,0.87,https://doi.org/10.1007/BF03027458
Ti-51Al,50.56,0.0,0.0,0.0,0.0,0.0,0.0,49.44,0.0,0.0,0.0,1000,10,4.11,https://doi.org/10.1007/BF03027458
Ti-43Al2W0.1Si,43.0,0.0,0.0,0.0,0.0,0.1,0.0,54.9,0.0,2.0,0.0,800,10,0.12,https://doi.org/10.1007/BF03027458
Ti-43Al2W0.1Si,43.0,0.0,0.0,0.0,0.0,0.1,0.0,54.9,0.0,2.0,0.0,900,10,0.28,https://doi.org/10.1007/BF03027458
Ti-43Al2W0.1Si,43.0,0.0,0.0,0.0,0.0,0.1,0.0,54.9,0.0,2.0,0.0,1000,10,0.99,https://doi.org/10.1007/BF03027458
Ti-39.4Al-10V,39.4,0.0,0.0,0.0,0.0,0.0,0.0,50.6,10.0,0.0,0.0,1000,10,15.06,https://doi.org/10.1007/BF03027458
Ti-48.4Al-1.9W,48.4,0.0,0.0,0.0,0.0,0.0,0.0,49.7,0.0,1.9,0.0,800,10,0.17,https://doi.org/10.1007/BF03027458
Ti-48.4Al-1.9W,48.4,0.0,0.0,0.0,0.0,0.0,0.0,49.7,0.0,1.9,0.0,900,10,0.39,https://doi.org/10.1007/BF03027458
Ti-48.4Al-1.9W,48.4,0.0,0.0,0.0,0.0,0.0,0.0,49.7,0.0,1.9,0.0,1000,10,0.73,https://doi.org/10.1007/BF03027458
Ti-48Al-2Cr2Nb,48.11,2.02,0.0,0.0,2.0,0.0,0.0,47.87,0.0,0.0,0.0,800,10,0.1,https://doi.org/10.1007/BF03027458
Ti-48Al-2Cr2Nb,48.11,2.02,0.0,0.0,2.0,0.0,0.0,47.87,0.0,0.0,0.0,900,10,0.4,https://doi.org/10.1007/BF03027458
Ti-48Al-2Cr2Nb,48.11,2.02,0.0,0.0,2.0,0.0,0.0,47.87,0.0,0.0,0.0,1000,10,1.68,https://doi.org/10.1007/BF03027458
Ti-47Al-4Cr,47.32,3.57,0.0,0.0,0.0,0.0,0.0,49.11,0.0,0.0,0.0,800,10,0.05,https://doi.org/10.1007/BF03027458
Ti-47Al-4Cr,47.32,3.57,0.0,0.0,0.0,0.0,0.0,49.11,0.0,0.0,0.0,1000,10,10.37,https://doi.org/10.1007/BF03027458
Ti45Al8Nb,45.0,0.0,0.0,0.0,8.0,0.0,0.0,47.0,0.0,0.0,0.0,900,10,0.35,https://doi.org/10.1016/j.intermet.2010.04.012
Ti50Al,50.7,0.0,0.0,0.0,0.0,0.0,0.0,49.3,0.0,0.0,0.0,900,10,1.45,https://doi.org/10.1023/A:1018839511102
Ti50Al2Nb,50.2,0.0,0.0,0.0,1.99,0.0,0.0,47.81,0.0,0.0,0.0,900,10,0.81,https://doi.org/10.1023/A:1018839511102
Ti23Al,23.0,0.0,0.0,0.0,0.0,0.0,0.0,77.0,0.0,0.0,0.0,900,10,14.8,https://doi.org/10.1023/A:1018839511102
TiAlNb-1,55.82,0.0,0.0,0.0,11.0,0.0,0.0,33.18,0.0,0.0,0.0,900,10,0.32,https://doi.org/10.1016/0921-5093(92)90257-2
TiAlNb-1,55.82,0.0,0.0,0.0,11.0,0.0,0.0,33.18,0.0,0.0,0.0,1000,10,0.58,https://doi.org/10.1016/0921-5093(92)90257-2
TiAlNb-1,55.82,0.0,0.0,0.0,11.0,0.0,0.0,33.18,0.0,0.0,0.0,1100,10,0.92,https://doi.org/10.1016/0921-5093(92)90257-2
TiAlNb-1,55.82,0.0,0.0,0.0,11.0,0.0,0.0,33.18,0.0,0.0,0.0,1200,10,3.77,https://doi.org/10.1016/0921-5093(92)90257-2
TiAlNb-2,61.42,0.0,0.0,0.0,19.64,0.0,0.0,18.94,0.0,0.0,0.0,900,10,1.98,https://doi.org/10.1016/0921-5093(92)90257-2
TiAlNb-2,61.42,0.0,0.0,0.0,19.64,0.0,0.0,18.94,0.0,0.0,0.0,1000,10,3.86,https://doi.org/10.1016/0921-5093(92)90257-2
TiAlNb-2,61.42,0.0,0.0,0.0,19.64,0.0,0.0,18.94,0.0,0.0,0.0,1100,10,7.6,https://doi.org/10.1016/0921-5093(92)90257-2
TiAlNb-2,61.42,0.0,0.0,0.0,19.64,0.0,0.0,18.94,0.0,0.0,0.0,1200,10,12.74,https://doi.org/10.1016/0921-5093(92)90257-2
Cr-12Nb,0.0,88.0,0.0,0.0,12.0,0.0,0.0,0.0,0.0,0.0,0.0,950,10,0.96,https://doi.org/10.1016/0921-5093(96)10197-0
Cr-12Nb-8Al,8.0,80.0,0.0,0.0,12.0,0.0,0.0,0.0,0.0,0.0,0.0,950,10,1.06,https://doi.org/10.1016/0921-5093(96)10197-0
Cr-12Nb-18Al,18.0,70.0,0.0,0.0,12.0,0.0,0.0,0.0,0.0,0.0,0.0,950,10,0.99,https://doi.org/10.1016/0921-5093(96)10197-0
Cr-12Nb-12Al,12.0,76.0,0.0,0.0,12.0,0.0,0.0,0.0,0.0,0.0,0.0,950,10,0.96,https://doi.org/10.1016/0921-5093(96)10197-0
Ti-46Al-1Cr-0.2Si,46.0,1.0,0.0,0.0,0.0,0.2,0.0,52.8,0.0,0.0,0.0,800,10,1.86,https://doi.org/10.1023/A:1004534830767
Nb-24Ti-15Si-13Cr-2Al-2Hf,2.0,13.0,2.0,0.0,44.0,15.0,0.0,24.0,0.0,0.0,0.0,1200,10,20.59,http://dx.doi.org/10.1016/j.corsci.2014.08.006
Nb-24Ti-15Si-13Cr-2Al-2Hf,2.0,13.0,2.0,0.0,44.0,15.0,0.0,24.0,0.0,0.0,0.0,1250,10,20.79,http://dx.doi.org/10.1016/j.corsci.2014.08.006
Mo-37Si-40Ti,0.0,0.0,0.0,23.0,0.0,37.0,0.0,40.0,0.0,0.0,0.0,750,10,0.1,https://doi.org/10.1016/j.scriptamat.2011.10.042
Mo-37Si-40Ti,0.0,0.0,0.0,23.0,0.0,37.0,0.0,40.0,0.0,0.0,0.0,820,10,0.31,https://doi.org/10.1016/j.scriptamat.2011.10.042
Mo-37Si-40Ti,0.0,0.0,0.0,23.0,0.0,37.0,0.0,40.0,0.0,0.0,0.0,1100,10,0.92,https://doi.org/10.1016/j.scriptamat.2011.10.042
Mo-37Si-40Ti,0.0,0.0,0.0,23.0,0.0,37.0,0.0,40.0,0.0,0.0,0.0,1300,10,2.92,https://doi.org/10.1016/j.scriptamat.2011.10.042
CrMo0.5NbTa0.5TiZr,0.0,18.39,0.0,10.04,21.83,0.0,11.86,19.4,0.0,0.0,18.48,1000,10,40.62,https://doi.org/10.1007/s10853-012-6582-0
Al0.5CrMoNbTi,9.97,24.7,0.0,20.01,21.82,0.0,0.0,23.5,0.0,0.0,0.0,1300,10,79.54,http://dx.doi.org/10.1016/j.jallcom.2013.08.102
Al0.5CrMoNbV,10.15,23.04,0.0,22.16,22.5,0.0,0.0,0.0,22.15,0.0,0.0,1300,10,195.48,http://dx.doi.org/10.1016/j.jallcom.2013.08.102
Al0.5CrMoNbTiV,8.15,18.92,0.0,18.08,18.35,0.0,0.0,18.12,18.38,0.0,0.0,1300,10,148.85,http://dx.doi.org/10.1016/j.jallcom.2013.08.102
Al0.5CrMoNbTiVSi0.3,6.96,16.95,0.0,17.14,17.68,5.69,0.0,18.26,17.32,0.0,0.0,1300,10,116.59,http://dx.doi.org/10.1016/j.jallcom.2013.08.102
AlCrMoNbTi,20.0,20.0,0.0,20.0,20.0,0.0,0.0,20.0,0.0,0.0,0.0,900,10,0.32,http://dx.doi.org/10.1016/j.jallcom.2016.07.219
AlCrMoNbTi,20.0,20.0,0.0,20.0,20.0,0.0,0.0,20.0,0.0,0.0,0.0,1000,10,1.75,http://dx.doi.org/10.1016/j.jallcom.2016.07.219
AlCrMoNbTi,20.0,20.0,0.0,20.0,20.0,0.0,0.0,20.0,0.0,0.0,0.0,1100,10,3.33,http://dx.doi.org/10.1016/j.jallcom.2016.07.219
AlCrMoNbTi-1Si,19.8,19.8,0.0,19.8,19.8,1.0,0.0,19.8,0.0,0.0,0.0,900,10,0.42,http://dx.doi.org/10.1016/j.jallcom.2016.07.219
AlCrMoNbTi-1Si,19.8,19.8,0.0,19.8,19.8,1.0,0.0,19.8,0.0,0.0,0.0,1000,10,1.68,http://dx.doi.org/10.1016/j.jallcom.2016.07.219
AlCrMoNbTi-1Si,19.8,19.8,0.0,19.8,19.8,1.0,0.0,19.8,0.0,0.0,0.0,1100,10,2.26,http://dx.doi.org/10.1016/j.jallcom.2016.07.219
AlCr2Nb2Ti2Zr,12.5,25.0,0.0,0.0,25.0,0.0,0.0,25.0,0.0,0.0,12.5,1000,10,12.96,https://doi.org/10.1016/j.jallcom.2020.154427
CrNbTiZr,0.0,24.6,0.0,0.0,26.7,0.0,0.0,23.9,0.0,0.0,24.8,1000,10,45.93,https://doi.org/10.1016/j.jallcom.2017.09.164